<?xml version="1.0" encoding="UTF-8"?>

<!-- generated on 2024-07-17 15:30:06 by Eclipse SUMO GUI Version 1.19.0
<configuration xmlns:xsi="http://www.w3.org/2001/XMLSchema-instance" xsi:noNamespaceSchemaLocation="http://sumo.dlr.de/xsd/sumoConfiguration.xsd">

    <input>
        <net-file value="C:\Users\manfr\Desktop\SUMO\joined\joined_lanes.net.xml"/>
        <route-files value="C:\Users\manfr\Desktop\SUMO\joined\routesampled.rou.xml"/>
        <additional-files value="C:\Users\manfr\Desktop\SUMO\joined\joined_bus_stops.add.xml,C:\Users\manfr\Desktop\SUMO\joined\joined_detectors.add.xml,C:\Users\manfr\Desktop\SUMO\joined\joined_vtypes.add.xml,C:\Users\manfr\Desktop\SUMO\joined\joined_tls.add.xml"/>
    </input>

    <output>
        <tripinfo-output value="C:\Users\manfr\Desktop\SUMO\joined\tripinfos.xml"/>
        <save-state.prefix value="C:\Users\manfr\Desktop\SUMO\joined\state"/>
    </output>

    <processing>
        <ignore-junction-blocker value="1"/>
        <ignore-route-errors value="true"/>
        <time-to-teleport value="-1"/>
    </processing>

    <report>
        <log value="C:\Users\manfr\Desktop\SUMO\joined\sumo_log.txt"/>
        <no-step-log value="true"/>
    </report>

    <emissions>
        <phemlight-path value="C:\Users\manfr\Desktop\SUMO\joined\./PHEMlight/"/>
    </emissions>

    <mesoscopic>
        <mesosim value="true"/>
        <meso-lane-queue value="true"/>
        <meso-junction-control value="true"/>
        <meso-overtaking value="true"/>
    </mesoscopic>

</configuration>
-->

<tripinfos xmlns:xsi="http://www.w3.org/2001/XMLSchema-instance" xsi:noNamespaceSchemaLocation="http://sumo.dlr.de/xsd/tripinfo_file.xsd">
    <tripinfo id="0" depart="1.00" departLane="" departPos="0.00" departSpeed="14.72" departDelay="0.89" arrival="112.00" arrivalLane="" arrivalPos="182.27" arrivalSpeed="14.72" duration="111.00" routeLength="899.48" waitingTime="49.00" waitingCount="0" stopTime="0.00" timeLoss="49.00" rerouteNo="0" devices="tripinfo_0" vType="DEFAULT_VEHTYPE" speedFactor="1.06" vaporized=""/>
    <tripinfo id="2" depart="3.00" departLane="" departPos="0.00" departSpeed="12.37" departDelay="0.85" arrival="112.00" arrivalLane="" arrivalPos="182.27" arrivalSpeed="14.03" duration="109.00" routeLength="899.48" waitingTime="41.00" waitingCount="0" stopTime="0.00" timeLoss="44.79" rerouteNo="0" devices="tripinfo_2" vType="DEFAULT_VEHTYPE" speedFactor="1.01" vaporized=""/>
    <tripinfo id="9" depart="22.00" departLane="" departPos="0.00" departSpeed="11.90" departDelay="0.23" arrival="114.00" arrivalLane="" arrivalPos="182.27" arrivalSpeed="11.90" duration="92.00" routeLength="899.48" waitingTime="16.00" waitingCount="0" stopTime="0.00" timeLoss="16.00" rerouteNo="0" devices="tripinfo_9" vType="DEFAULT_VEHTYPE" speedFactor="0.86" vaporized=""/>
    <tripinfo id="11" depart="23.00" departLane="" departPos="0.00" departSpeed="11.05" departDelay="0.04" arrival="114.00" arrivalLane="" arrivalPos="182.27" arrivalSpeed="14.26" duration="91.00" routeLength="899.48" waitingTime="0.00" waitingCount="0" stopTime="0.00" timeLoss="27.67" rerouteNo="0" devices="tripinfo_11" vType="DEFAULT_VEHTYPE" speedFactor="1.03" vaporized=""/>
    <tripinfo id="13" depart="25.00" departLane="" departPos="0.00" departSpeed="11.46" departDelay="0.24" arrival="114.00" arrivalLane="" arrivalPos="182.27" arrivalSpeed="15.60" duration="89.00" routeLength="899.48" waitingTime="0.00" waitingCount="0" stopTime="0.00" timeLoss="30.76" rerouteNo="0" devices="tripinfo_13" vType="DEFAULT_VEHTYPE" speedFactor="1.12" vaporized=""/>
    <tripinfo id="14" depart="26.00" departLane="" departPos="0.00" departSpeed="10.67" departDelay="0.86" arrival="114.00" arrivalLane="" arrivalPos="182.27" arrivalSpeed="13.77" duration="88.00" routeLength="899.48" waitingTime="0.00" waitingCount="0" stopTime="0.00" timeLoss="22.47" rerouteNo="0" devices="tripinfo_14" vType="DEFAULT_VEHTYPE" speedFactor="0.99" vaporized=""/>
    <tripinfo id="21" depart="33.00" departLane="" departPos="0.00" departSpeed="14.03" departDelay="0.29" arrival="116.00" arrivalLane="" arrivalPos="182.27" arrivalSpeed="14.03" duration="83.00" routeLength="899.48" waitingTime="0.00" waitingCount="0" stopTime="0.00" timeLoss="18.64" rerouteNo="0" devices="tripinfo_21" vType="DEFAULT_VEHTYPE" speedFactor="1.01" vaporized=""/>
    <tripinfo id="15" depart="26.00" departLane="" departPos="0.00" departSpeed="9.10" departDelay="0.47" arrival="118.00" arrivalLane="" arrivalPos="182.27" arrivalSpeed="12.87" duration="92.00" routeLength="899.48" waitingTime="0.00" waitingCount="0" stopTime="0.00" timeLoss="21.54" rerouteNo="0" devices="tripinfo_15" vType="DEFAULT_VEHTYPE" speedFactor="0.93" vaporized=""/>
    <tripinfo id="29" depart="39.00" departLane="" departPos="0.00" departSpeed="11.05" departDelay="0.42" arrival="118.00" arrivalLane="" arrivalPos="182.27" arrivalSpeed="12.94" duration="79.00" routeLength="899.48" waitingTime="0.00" waitingCount="0" stopTime="0.00" timeLoss="9.43" rerouteNo="0" devices="tripinfo_29" vType="DEFAULT_VEHTYPE" speedFactor="0.93" vaporized=""/>
    <tripinfo id="30" depart="39.00" departLane="" departPos="0.00" departSpeed="9.38" departDelay="0.08" arrival="118.00" arrivalLane="" arrivalPos="182.27" arrivalSpeed="16.37" duration="79.00" routeLength="899.48" waitingTime="0.00" waitingCount="0" stopTime="0.00" timeLoss="23.78" rerouteNo="0" devices="tripinfo_30" vType="DEFAULT_VEHTYPE" speedFactor="1.18" vaporized=""/>
    <tripinfo id="24" depart="36.00" departLane="" departPos="0.00" departSpeed="11.47" departDelay="0.32" arrival="119.00" arrivalLane="" arrivalPos="182.27" arrivalSpeed="11.47" duration="83.00" routeLength="899.48" waitingTime="0.00" waitingCount="0" stopTime="0.00" timeLoss="3.69" rerouteNo="0" devices="tripinfo_24" vType="DEFAULT_VEHTYPE" speedFactor="0.83" vaporized=""/>
    <tripinfo id="44" depart="61.00" departLane="" departPos="0.00" departSpeed="12.68" departDelay="0.98" arrival="125.00" arrivalLane="" arrivalPos="182.27" arrivalSpeed="14.49" duration="64.00" routeLength="899.48" waitingTime="0.00" waitingCount="0" stopTime="0.00" timeLoss="1.21" rerouteNo="0" devices="tripinfo_44" vType="DEFAULT_VEHTYPE" speedFactor="1.04" vaporized=""/>
    <tripinfo id="46" depart="62.00" departLane="" departPos="0.00" departSpeed="11.72" departDelay="0.91" arrival="129.00" arrivalLane="" arrivalPos="182.27" arrivalSpeed="13.85" duration="67.00" routeLength="899.48" waitingTime="0.00" waitingCount="0" stopTime="0.00" timeLoss="1.36" rerouteNo="0" devices="tripinfo_46" vType="DEFAULT_VEHTYPE" speedFactor="1.00" vaporized=""/>
    <tripinfo id="1" depart="1.00" departLane="" departPos="0.00" departSpeed="11.90" departDelay="0.18" arrival="177.00" arrivalLane="" arrivalPos="301.28" arrivalSpeed="13.03" duration="176.00" routeLength="2001.93" waitingTime="21.00" waitingCount="0" stopTime="0.00" timeLoss="21.76" rerouteNo="0" devices="tripinfo_1" vType="DEFAULT_VEHTYPE" speedFactor="0.94" vaporized=""/>
    <tripinfo id="31" depart="41.00" departLane="" departPos="0.00" departSpeed="9.67" departDelay="0.31" arrival="186.00" arrivalLane="" arrivalPos="301.28" arrivalSpeed="16.03" duration="145.00" routeLength="2001.93" waitingTime="0.00" waitingCount="0" stopTime="0.00" timeLoss="19.81" rerouteNo="0" devices="tripinfo_31" vType="DEFAULT_VEHTYPE" speedFactor="1.15" vaporized=""/>
    <tripinfo id="18" depart="27.00" departLane="" departPos="0.00" departSpeed="13.00" departDelay="0.13" arrival="207.00" arrivalLane="" arrivalPos="24.13" arrivalSpeed="13.00" duration="180.00" routeLength="1704.90" waitingTime="46.97" waitingCount="0" stopTime="0.00" timeLoss="47.90" rerouteNo="0" devices="tripinfo_18" vType="DEFAULT_VEHTYPE" speedFactor="0.94" vaporized=""/>
    <tripinfo id="42" depart="59.00" departLane="" departPos="0.00" departSpeed="15.17" departDelay="0.52" arrival="208.00" arrivalLane="" arrivalPos="187.21" arrivalSpeed="15.17" duration="149.00" routeLength="1824.62" waitingTime="13.00" waitingCount="0" stopTime="0.00" timeLoss="28.49" rerouteNo="0" devices="tripinfo_42" vType="DEFAULT_VEHTYPE" speedFactor="1.09" vaporized=""/>
    <tripinfo id="25" depart="36.00" departLane="" departPos="0.00" departSpeed="9.68" departDelay="0.11" arrival="214.00" arrivalLane="" arrivalPos="187.21" arrivalSpeed="12.12" duration="178.00" routeLength="1824.62" waitingTime="17.00" waitingCount="0" stopTime="0.00" timeLoss="26.75" rerouteNo="0" devices="tripinfo_25" vType="DEFAULT_VEHTYPE" speedFactor="0.87" vaporized=""/>
    <tripinfo id="38" depart="51.00" departLane="" departPos="0.00" departSpeed="12.43" departDelay="0.55" arrival="222.00" arrivalLane="" arrivalPos="301.28" arrivalSpeed="15.31" duration="171.00" routeLength="2001.93" waitingTime="30.00" waitingCount="0" stopTime="0.00" timeLoss="39.36" rerouteNo="0" devices="tripinfo_38" vType="DEFAULT_VEHTYPE" speedFactor="1.10" vaporized=""/>
    <tripinfo id="33" depart="47.00" departLane="" departPos="0.00" departSpeed="16.28" departDelay="0.57" arrival="224.00" arrivalLane="" arrivalPos="301.28" arrivalSpeed="16.28" duration="177.00" routeLength="2175.21" waitingTime="0.71" waitingCount="0" stopTime="0.00" timeLoss="42.64" rerouteNo="0" devices="tripinfo_33" vType="DEFAULT_VEHTYPE" speedFactor="1.17" vaporized=""/>
    <tripinfo id="36" depart="50.00" departLane="" departPos="0.00" departSpeed="13.52" departDelay="0.74" arrival="226.00" arrivalLane="" arrivalPos="301.28" arrivalSpeed="13.52" duration="176.00" routeLength="2001.93" waitingTime="0.00" waitingCount="0" stopTime="0.00" timeLoss="27.29" rerouteNo="0" devices="tripinfo_36" vType="DEFAULT_VEHTYPE" speedFactor="0.97" vaporized=""/>
    <tripinfo id="51" depart="71.00" departLane="" departPos="0.00" departSpeed="16.24" departDelay="0.25" arrival="233.00" arrivalLane="" arrivalPos="182.27" arrivalSpeed="16.24" duration="162.00" routeLength="899.48" waitingTime="95.00" waitingCount="0" stopTime="0.00" timeLoss="105.83" rerouteNo="0" devices="tripinfo_51" vType="DEFAULT_VEHTYPE" speedFactor="1.17" vaporized=""/>
    <tripinfo id="54" depart="76.00" departLane="" departPos="0.00" departSpeed="13.93" departDelay="0.64" arrival="236.00" arrivalLane="" arrivalPos="182.27" arrivalSpeed="13.93" duration="160.00" routeLength="899.48" waitingTime="19.00" waitingCount="0" stopTime="0.00" timeLoss="94.52" rerouteNo="0" devices="tripinfo_54" vType="DEFAULT_VEHTYPE" speedFactor="1.00" vaporized=""/>
    <tripinfo id="60" depart="80.00" departLane="" departPos="0.00" departSpeed="15.03" departDelay="0.56" arrival="236.00" arrivalLane="" arrivalPos="182.27" arrivalSpeed="15.04" duration="156.00" routeLength="899.48" waitingTime="0.00" waitingCount="0" stopTime="0.00" timeLoss="95.57" rerouteNo="0" devices="tripinfo_60" vType="DEFAULT_VEHTYPE" speedFactor="1.08" vaporized=""/>
    <tripinfo id="4" depart="4.00" departLane="" departPos="0.00" departSpeed="14.31" departDelay="0.60" arrival="237.00" arrivalLane="" arrivalPos="436.51" arrivalSpeed="14.31" duration="233.00" routeLength="2310.98" waitingTime="56.55" waitingCount="0" stopTime="0.00" timeLoss="71.50" rerouteNo="0" devices="tripinfo_4" vType="DEFAULT_VEHTYPE" speedFactor="1.03" vaporized=""/>
    <tripinfo id="65" depart="89.00" departLane="" departPos="0.00" departSpeed="12.26" departDelay="0.28" arrival="237.00" arrivalLane="" arrivalPos="182.27" arrivalSpeed="12.26" duration="148.00" routeLength="899.48" waitingTime="14.00" waitingCount="0" stopTime="0.00" timeLoss="73.85" rerouteNo="0" devices="tripinfo_65" vType="DEFAULT_VEHTYPE" speedFactor="0.88" vaporized=""/>
    <tripinfo id="63" depart="87.00" departLane="" departPos="0.00" departSpeed="12.93" departDelay="0.79" arrival="239.00" arrivalLane="" arrivalPos="182.27" arrivalSpeed="13.71" duration="152.00" routeLength="899.48" waitingTime="0.00" waitingCount="0" stopTime="0.00" timeLoss="86.23" rerouteNo="0" devices="tripinfo_63" vType="DEFAULT_VEHTYPE" speedFactor="0.99" vaporized=""/>
    <tripinfo id="69" depart="92.00" departLane="" departPos="0.00" departSpeed="14.20" departDelay="0.75" arrival="239.00" arrivalLane="" arrivalPos="182.27" arrivalSpeed="14.20" duration="147.00" routeLength="899.48" waitingTime="0.00" waitingCount="0" stopTime="0.00" timeLoss="83.41" rerouteNo="0" devices="tripinfo_69" vType="DEFAULT_VEHTYPE" speedFactor="1.02" vaporized=""/>
    <tripinfo id="75" depart="101.00" departLane="" departPos="0.00" departSpeed="13.68" departDelay="0.77" arrival="240.00" arrivalLane="" arrivalPos="182.27" arrivalSpeed="13.68" duration="139.00" routeLength="899.48" waitingTime="0.00" waitingCount="0" stopTime="0.00" timeLoss="72.49" rerouteNo="0" devices="tripinfo_75" vType="DEFAULT_VEHTYPE" speedFactor="0.98" vaporized=""/>
    <tripinfo id="70" depart="93.00" departLane="" departPos="0.00" departSpeed="13.00" departDelay="0.52" arrival="241.00" arrivalLane="" arrivalPos="182.27" arrivalSpeed="13.71" duration="148.00" routeLength="899.48" waitingTime="0.00" waitingCount="0" stopTime="0.00" timeLoss="84.21" rerouteNo="0" devices="tripinfo_70" vType="DEFAULT_VEHTYPE" speedFactor="1.02" vaporized=""/>
    <tripinfo id="73" depart="96.00" departLane="" departPos="0.00" departSpeed="12.47" departDelay="0.21" arrival="241.00" arrivalLane="" arrivalPos="182.27" arrivalSpeed="14.20" duration="145.00" routeLength="899.48" waitingTime="50.22" waitingCount="0" stopTime="0.00" timeLoss="83.10" rerouteNo="0" devices="tripinfo_73" vType="DEFAULT_VEHTYPE" speedFactor="1.06" vaporized=""/>
    <tripinfo id="74" depart="98.00" departLane="" departPos="0.00" departSpeed="12.99" departDelay="0.42" arrival="242.00" arrivalLane="" arrivalPos="182.27" arrivalSpeed="13.27" duration="144.00" routeLength="899.48" waitingTime="1.51" waitingCount="0" stopTime="0.00" timeLoss="75.52" rerouteNo="0" devices="tripinfo_74" vType="DEFAULT_VEHTYPE" speedFactor="0.96" vaporized=""/>
    <tripinfo id="19" depart="31.00" departLane="" departPos="0.00" departSpeed="16.09" departDelay="0.42" arrival="243.00" arrivalLane="" arrivalPos="29.44" arrivalSpeed="16.09" duration="212.00" routeLength="1995.82" waitingTime="67.00" waitingCount="0" stopTime="0.00" timeLoss="87.76" rerouteNo="0" devices="tripinfo_19" vType="DEFAULT_VEHTYPE" speedFactor="1.16" vaporized=""/>
    <tripinfo id="85" depart="117.00" departLane="" departPos="0.00" departSpeed="9.37" departDelay="0.05" arrival="243.00" arrivalLane="" arrivalPos="182.27" arrivalSpeed="13.56" duration="126.00" routeLength="899.48" waitingTime="0.00" waitingCount="0" stopTime="0.00" timeLoss="59.36" rerouteNo="0" devices="tripinfo_85" vType="DEFAULT_VEHTYPE" speedFactor="0.98" vaporized=""/>
    <tripinfo id="87" depart="121.00" departLane="" departPos="0.00" departSpeed="11.88" departDelay="0.68" arrival="244.00" arrivalLane="" arrivalPos="182.27" arrivalSpeed="14.48" duration="123.00" routeLength="899.48" waitingTime="0.00" waitingCount="0" stopTime="0.00" timeLoss="60.42" rerouteNo="0" devices="tripinfo_87" vType="DEFAULT_VEHTYPE" speedFactor="1.04" vaporized=""/>
    <tripinfo id="88" depart="124.00" departLane="" departPos="0.00" departSpeed="13.99" departDelay="0.24" arrival="244.00" arrivalLane="" arrivalPos="182.27" arrivalSpeed="13.99" duration="120.00" routeLength="899.48" waitingTime="0.00" waitingCount="0" stopTime="0.00" timeLoss="55.65" rerouteNo="0" devices="tripinfo_88" vType="DEFAULT_VEHTYPE" speedFactor="1.01" vaporized=""/>
    <tripinfo id="89" depart="125.00" departLane="" departPos="0.00" departSpeed="12.83" departDelay="1.05" arrival="246.00" arrivalLane="" arrivalPos="182.27" arrivalSpeed="14.20" duration="121.00" routeLength="899.48" waitingTime="0.00" waitingCount="0" stopTime="0.00" timeLoss="57.20" rerouteNo="0" devices="tripinfo_89" vType="DEFAULT_VEHTYPE" speedFactor="1.02" vaporized=""/>
    <tripinfo id="27" depart="38.00" departLane="" departPos="0.00" departSpeed="13.18" departDelay="0.98" arrival="247.00" arrivalLane="" arrivalPos="29.44" arrivalSpeed="13.18" duration="209.00" routeLength="1995.82" waitingTime="10.20" waitingCount="0" stopTime="0.00" timeLoss="57.27" rerouteNo="0" devices="tripinfo_27" vType="DEFAULT_VEHTYPE" speedFactor="0.95" vaporized=""/>
    <tripinfo id="91" depart="127.00" departLane="" departPos="0.00" departSpeed="12.39" departDelay="1.32" arrival="248.00" arrivalLane="" arrivalPos="182.27" arrivalSpeed="12.39" duration="121.00" routeLength="899.48" waitingTime="0.00" waitingCount="0" stopTime="0.00" timeLoss="47.81" rerouteNo="0" devices="tripinfo_91" vType="DEFAULT_VEHTYPE" speedFactor="0.89" vaporized=""/>
    <tripinfo id="98" depart="139.00" departLane="" departPos="0.00" departSpeed="15.58" departDelay="0.76" arrival="248.00" arrivalLane="" arrivalPos="182.27" arrivalSpeed="15.58" duration="109.00" routeLength="899.48" waitingTime="0.00" waitingCount="0" stopTime="0.00" timeLoss="50.84" rerouteNo="0" devices="tripinfo_98" vType="DEFAULT_VEHTYPE" speedFactor="1.12" vaporized=""/>
    <tripinfo id="17" depart="27.00" departLane="" departPos="0.00" departSpeed="13.08" departDelay="0.51" arrival="249.00" arrivalLane="" arrivalPos="29.44" arrivalSpeed="13.08" duration="222.00" routeLength="1995.82" waitingTime="19.08" waitingCount="0" stopTime="0.00" timeLoss="68.82" rerouteNo="0" devices="tripinfo_17" vType="DEFAULT_VEHTYPE" speedFactor="0.94" vaporized=""/>
    <tripinfo id="35" depart="48.00" departLane="" departPos="0.00" departSpeed="14.16" departDelay="0.19" arrival="250.00" arrivalLane="" arrivalPos="29.44" arrivalSpeed="14.16" duration="202.00" routeLength="1995.82" waitingTime="1.19" waitingCount="0" stopTime="0.00" timeLoss="61.03" rerouteNo="0" devices="tripinfo_35" vType="DEFAULT_VEHTYPE" speedFactor="1.02" vaporized=""/>
    <tripinfo id="101" depart="142.00" departLane="" departPos="0.00" departSpeed="13.29" departDelay="0.65" arrival="251.00" arrivalLane="" arrivalPos="182.27" arrivalSpeed="13.29" duration="109.00" routeLength="899.48" waitingTime="0.00" waitingCount="0" stopTime="0.00" timeLoss="41.08" rerouteNo="0" devices="tripinfo_101" vType="DEFAULT_VEHTYPE" speedFactor="0.96" vaporized=""/>
    <tripinfo id="32" depart="44.00" departLane="" departPos="0.00" departSpeed="13.96" departDelay="0.79" arrival="252.00" arrivalLane="" arrivalPos="29.44" arrivalSpeed="13.96" duration="208.00" routeLength="1995.82" waitingTime="3.61" waitingCount="0" stopTime="0.00" timeLoss="64.70" rerouteNo="0" devices="tripinfo_32" vType="DEFAULT_VEHTYPE" speedFactor="1.01" vaporized=""/>
    <tripinfo id="106" depart="144.00" departLane="" departPos="0.00" departSpeed="11.34" departDelay="0.73" arrival="253.00" arrivalLane="" arrivalPos="182.27" arrivalSpeed="13.42" duration="109.00" routeLength="899.48" waitingTime="0.00" waitingCount="0" stopTime="0.00" timeLoss="44.58" rerouteNo="0" devices="tripinfo_106" vType="DEFAULT_VEHTYPE" speedFactor="1.01" vaporized=""/>
    <tripinfo id="112" depart="150.00" departLane="" departPos="0.00" departSpeed="12.72" departDelay="5.07" arrival="253.00" arrivalLane="" arrivalPos="182.27" arrivalSpeed="15.26" duration="103.00" routeLength="899.48" waitingTime="0.00" waitingCount="0" stopTime="0.00" timeLoss="44.03" rerouteNo="0" devices="tripinfo_112" vType="DEFAULT_VEHTYPE" speedFactor="1.10" vaporized=""/>
    <tripinfo id="5" depart="4.00" departLane="" departPos="0.00" departSpeed="11.54" departDelay="0.00" arrival="255.00" arrivalLane="" arrivalPos="29.44" arrivalSpeed="11.54" duration="251.00" routeLength="1995.82" waitingTime="20.73" waitingCount="0" stopTime="0.00" timeLoss="77.75" rerouteNo="0" devices="tripinfo_5" vType="DEFAULT_VEHTYPE" speedFactor="0.83" vaporized=""/>
    <tripinfo id="110" depart="148.00" departLane="" departPos="0.00" departSpeed="12.23" departDelay="3.79" arrival="256.00" arrivalLane="" arrivalPos="182.27" arrivalSpeed="12.88" duration="108.00" routeLength="899.48" waitingTime="4.50" waitingCount="0" stopTime="0.00" timeLoss="37.41" rerouteNo="0" devices="tripinfo_110" vType="DEFAULT_VEHTYPE" speedFactor="0.93" vaporized=""/>
    <tripinfo id="43" depart="60.00" departLane="" departPos="0.00" departSpeed="13.81" departDelay="0.27" arrival="265.00" arrivalLane="" arrivalPos="301.28" arrivalSpeed="14.41" duration="205.00" routeLength="2001.93" waitingTime="0.00" waitingCount="0" stopTime="0.00" timeLoss="65.60" rerouteNo="0" devices="tripinfo_43" vType="DEFAULT_VEHTYPE" speedFactor="1.04" vaporized=""/>
    <tripinfo id="40" depart="58.00" departLane="" departPos="0.00" departSpeed="14.31" departDelay="0.30" arrival="270.00" arrivalLane="" arrivalPos="301.28" arrivalSpeed="14.31" duration="212.00" routeLength="2175.21" waitingTime="52.00" waitingCount="0" stopTime="0.00" timeLoss="59.49" rerouteNo="0" devices="tripinfo_40" vType="DEFAULT_VEHTYPE" speedFactor="1.03" vaporized=""/>
    <tripinfo id="6" depart="15.00" departLane="" departPos="0.00" departSpeed="14.53" departDelay="0.89" arrival="276.00" arrivalLane="" arrivalPos="436.51" arrivalSpeed="14.53" duration="261.00" routeLength="2310.98" waitingTime="46.00" waitingCount="0" stopTime="0.00" timeLoss="101.85" rerouteNo="0" devices="tripinfo_6" vType="DEFAULT_VEHTYPE" speedFactor="1.05" vaporized=""/>
    <tripinfo id="68" depart="91.00" departLane="" departPos="0.00" departSpeed="14.45" departDelay="0.28" arrival="277.00" arrivalLane="" arrivalPos="301.28" arrivalSpeed="14.45" duration="186.00" routeLength="2175.21" waitingTime="1.27" waitingCount="0" stopTime="0.00" timeLoss="35.01" rerouteNo="0" devices="tripinfo_68" vType="DEFAULT_VEHTYPE" speedFactor="1.04" vaporized=""/>
    <tripinfo id="3" depart="3.00" departLane="" departPos="0.00" departSpeed="15.04" departDelay="0.65" arrival="278.00" arrivalLane="" arrivalPos="436.51" arrivalSpeed="15.04" duration="275.00" routeLength="2506.87" waitingTime="54.18" waitingCount="0" stopTime="0.00" timeLoss="107.49" rerouteNo="0" devices="tripinfo_3" vType="DEFAULT_VEHTYPE" speedFactor="1.08" vaporized=""/>
    <tripinfo id="79" depart="106.00" departLane="" departPos="0.00" departSpeed="15.10" departDelay="0.52" arrival="280.00" arrivalLane="" arrivalPos="301.28" arrivalSpeed="15.10" duration="174.00" routeLength="2175.21" waitingTime="0.80" waitingCount="0" stopTime="0.00" timeLoss="29.81" rerouteNo="0" devices="tripinfo_79" vType="DEFAULT_VEHTYPE" speedFactor="1.09" vaporized=""/>
    <tripinfo id="8" depart="22.00" departLane="" departPos="0.00" departSpeed="13.03" departDelay="0.89" arrival="285.00" arrivalLane="" arrivalPos="436.51" arrivalSpeed="13.03" duration="263.00" routeLength="2310.98" waitingTime="76.00" waitingCount="0" stopTime="0.00" timeLoss="85.56" rerouteNo="0" devices="tripinfo_8" vType="DEFAULT_VEHTYPE" speedFactor="0.94" vaporized=""/>
    <tripinfo id="7" depart="16.00" departLane="" departPos="0.00" departSpeed="12.31" departDelay="0.93" arrival="287.00" arrivalLane="" arrivalPos="301.28" arrivalSpeed="12.31" duration="271.00" routeLength="2175.21" waitingTime="41.00" waitingCount="0" stopTime="0.00" timeLoss="93.33" rerouteNo="0" devices="tripinfo_7" vType="DEFAULT_VEHTYPE" speedFactor="0.89" vaporized=""/>
    <tripinfo id="16" depart="27.00" departLane="" departPos="0.00" departSpeed="12.20" departDelay="0.53" arrival="290.00" arrivalLane="" arrivalPos="436.51" arrivalSpeed="12.20" duration="263.00" routeLength="2310.98" waitingTime="0.00" waitingCount="0" stopTime="0.00" timeLoss="73.47" rerouteNo="0" devices="tripinfo_16" vType="DEFAULT_VEHTYPE" speedFactor="0.88" vaporized=""/>
    <tripinfo id="23" depart="36.00" departLane="" departPos="0.00" departSpeed="12.36" departDelay="0.62" arrival="294.00" arrivalLane="" arrivalPos="436.51" arrivalSpeed="12.36" duration="258.00" routeLength="2506.87" waitingTime="43.21" waitingCount="0" stopTime="0.00" timeLoss="54.76" rerouteNo="0" devices="tripinfo_23" vType="DEFAULT_VEHTYPE" speedFactor="0.89" vaporized=""/>
    <tripinfo id="50" depart="69.00" departLane="" departPos="0.00" departSpeed="11.87" departDelay="0.04" arrival="295.00" arrivalLane="" arrivalPos="436.51" arrivalSpeed="11.87" duration="226.00" routeLength="2310.98" waitingTime="1.19" waitingCount="0" stopTime="0.00" timeLoss="31.01" rerouteNo="0" devices="tripinfo_50" vType="DEFAULT_VEHTYPE" speedFactor="0.85" vaporized=""/>
    <tripinfo id="66" depart="90.00" departLane="" departPos="0.00" departSpeed="12.60" departDelay="0.66" arrival="298.00" arrivalLane="" arrivalPos="436.51" arrivalSpeed="12.60" duration="208.00" routeLength="2310.98" waitingTime="0.10" waitingCount="0" stopTime="0.00" timeLoss="24.50" rerouteNo="0" devices="tripinfo_66" vType="DEFAULT_VEHTYPE" speedFactor="0.91" vaporized=""/>
    <tripinfo id="10" depart="23.00" departLane="" departPos="0.00" departSpeed="15.15" departDelay="0.74" arrival="299.00" arrivalLane="" arrivalPos="301.28" arrivalSpeed="15.15" duration="276.00" routeLength="1862.85" waitingTime="58.48" waitingCount="0" stopTime="0.00" timeLoss="152.87" rerouteNo="0" devices="tripinfo_10" vType="DEFAULT_VEHTYPE" speedFactor="1.09" vaporized=""/>
    <tripinfo id="12" depart="24.00" departLane="" departPos="0.00" departSpeed="14.54" departDelay="0.73" arrival="299.00" arrivalLane="" arrivalPos="229.61" arrivalSpeed="14.54" duration="275.00" routeLength="2301.62" waitingTime="108.00" waitingCount="0" stopTime="0.00" timeLoss="116.35" rerouteNo="0" devices="tripinfo_12" vType="DEFAULT_VEHTYPE" speedFactor="1.05" vaporized=""/>
    <tripinfo id="20" depart="32.00" departLane="" departPos="0.00" departSpeed="14.14" departDelay="0.97" arrival="299.00" arrivalLane="" arrivalPos="301.28" arrivalSpeed="14.14" duration="267.00" routeLength="1862.85" waitingTime="117.65" waitingCount="0" stopTime="0.00" timeLoss="134.37" rerouteNo="0" devices="tripinfo_20" vType="DEFAULT_VEHTYPE" speedFactor="1.02" vaporized=""/>
    <tripinfo id="28" depart="38.00" departLane="" departPos="0.00" departSpeed="15.72" departDelay="0.15" arrival="301.00" arrivalLane="" arrivalPos="229.61" arrivalSpeed="15.72" duration="263.00" routeLength="2301.62" waitingTime="1.33" waitingCount="0" stopTime="0.00" timeLoss="116.35" rerouteNo="0" devices="tripinfo_28" vType="DEFAULT_VEHTYPE" speedFactor="1.13" vaporized=""/>
    <tripinfo id="22" depart="33.00" departLane="" departPos="0.00" departSpeed="13.54" departDelay="0.25" arrival="302.00" arrivalLane="" arrivalPos="229.61" arrivalSpeed="13.54" duration="269.00" routeLength="2301.62" waitingTime="0.00" waitingCount="0" stopTime="0.00" timeLoss="98.49" rerouteNo="0" devices="tripinfo_22" vType="DEFAULT_VEHTYPE" speedFactor="0.97" vaporized=""/>
    <tripinfo id="37" depart="50.00" departLane="" departPos="0.00" departSpeed="16.39" departDelay="0.10" arrival="302.00" arrivalLane="" arrivalPos="229.61" arrivalSpeed="16.39" duration="252.00" routeLength="2301.62" waitingTime="0.38" waitingCount="0" stopTime="0.00" timeLoss="111.37" rerouteNo="0" devices="tripinfo_37" vType="DEFAULT_VEHTYPE" speedFactor="1.18" vaporized=""/>
    <tripinfo id="34" depart="48.00" departLane="" departPos="0.00" departSpeed="13.82" departDelay="0.38" arrival="304.00" arrivalLane="" arrivalPos="301.28" arrivalSpeed="13.82" duration="256.00" routeLength="1862.85" waitingTime="8.22" waitingCount="0" stopTime="0.00" timeLoss="120.36" rerouteNo="0" devices="tripinfo_34" vType="DEFAULT_VEHTYPE" speedFactor="0.99" vaporized=""/>
    <tripinfo id="61" depart="82.00" departLane="" departPos="0.00" departSpeed="15.55" departDelay="0.77" arrival="306.00" arrivalLane="" arrivalPos="187.21" arrivalSpeed="12.29" duration="224.00" routeLength="1824.62" waitingTime="13.00" waitingCount="0" stopTime="0.00" timeLoss="105.94" rerouteNo="0" devices="tripinfo_61" vType="DEFAULT_VEHTYPE" speedFactor="1.12" vaporized=""/>
    <tripinfo id="45" depart="61.00" departLane="" departPos="0.00" departSpeed="15.11" departDelay="0.11" arrival="307.00" arrivalLane="" arrivalPos="229.61" arrivalSpeed="15.11" duration="246.00" routeLength="2301.62" waitingTime="1.51" waitingCount="0" stopTime="0.00" timeLoss="93.39" rerouteNo="0" devices="tripinfo_45" vType="DEFAULT_VEHTYPE" speedFactor="1.09" vaporized=""/>
    <tripinfo id="26" depart="37.00" departLane="" departPos="0.00" departSpeed="12.74" departDelay="0.83" arrival="308.00" arrivalLane="" arrivalPos="229.61" arrivalSpeed="12.74" duration="271.00" routeLength="2301.62" waitingTime="1.58" waitingCount="0" stopTime="0.00" timeLoss="90.19" rerouteNo="0" devices="tripinfo_26" vType="DEFAULT_VEHTYPE" speedFactor="0.92" vaporized=""/>
    <tripinfo id="39" depart="52.00" departLane="" departPos="0.00" departSpeed="12.51" departDelay="0.89" arrival="308.00" arrivalLane="" arrivalPos="301.28" arrivalSpeed="12.51" duration="256.00" routeLength="1862.85" waitingTime="2.45" waitingCount="0" stopTime="0.00" timeLoss="106.41" rerouteNo="0" devices="tripinfo_39" vType="DEFAULT_VEHTYPE" speedFactor="0.90" vaporized=""/>
    <tripinfo id="41" depart="59.00" departLane="" departPos="0.00" departSpeed="13.29" departDelay="0.68" arrival="311.00" arrivalLane="" arrivalPos="229.61" arrivalSpeed="13.29" duration="252.00" routeLength="2301.62" waitingTime="1.17" waitingCount="0" stopTime="0.00" timeLoss="78.31" rerouteNo="0" devices="tripinfo_41" vType="DEFAULT_VEHTYPE" speedFactor="0.96" vaporized=""/>
    <tripinfo id="56" depart="76.00" departLane="" departPos="0.00" departSpeed="12.49" departDelay="0.27" arrival="316.00" arrivalLane="" arrivalPos="229.61" arrivalSpeed="12.49" duration="240.00" routeLength="2301.62" waitingTime="0.00" waitingCount="0" stopTime="0.00" timeLoss="55.12" rerouteNo="0" devices="tripinfo_56" vType="DEFAULT_VEHTYPE" speedFactor="0.90" vaporized=""/>