<?xml version="1.0" encoding="UTF-8"?>

<!-- generated on 2024-09-03 09:55:50 by Eclipse SUMO GUI Version 1.19.0
<configuration xmlns:xsi="http://www.w3.org/2001/XMLSchema-instance" xsi:noNamespaceSchemaLocation="http://sumo.dlr.de/xsd/sumoConfiguration.xsd">

    <input>
        <net-file value="C:\Users\aless_xtbdjh4\PycharmProjects\UrbanDigitalTwin\SUMO\joined\joined_lanes.net.xml"/>
        <route-files value="C:\Users\aless_xtbdjh4\PycharmProjects\UrbanDigitalTwin\SUMO\joined\generatedRoutes.rou.xml"/>
        <additional-files value="C:\Users\aless_xtbdjh4\PycharmProjects\UrbanDigitalTwin\SUMO\joined\joined_detectors.add.xml,C:\Users\aless_xtbdjh4\PycharmProjects\UrbanDigitalTwin\SUMO\joined\joined_vtypes.add.xml,C:\Users\aless_xtbdjh4\PycharmProjects\UrbanDigitalTwin\SUMO\joined\joined_tls.add.xml"/>
    </input>

    <output>
        <fcd-output value="C:\Users\aless_xtbdjh4\PycharmProjects\UrbanDigitalTwin\SUMO\joined\fcd.xml"/>
        <queue-output value="C:\Users\aless_xtbdjh4\PycharmProjects\UrbanDigitalTwin\SUMO\joined\queue.xml"/>
        <summary-output value="C:\Users\aless_xtbdjh4\PycharmProjects\UrbanDigitalTwin\SUMO\joined\summary.xml"/>
        <tripinfo-output value="C:\Users\aless_xtbdjh4\PycharmProjects\UrbanDigitalTwin\SUMO\joined\tripinfos.xml"/>
        <vehroute-output value="C:\Users\aless_xtbdjh4\PycharmProjects\UrbanDigitalTwin\SUMO\joined\vehroute.xml"/>
        <save-state.prefix value="C:\Users\aless_xtbdjh4\PycharmProjects\UrbanDigitalTwin\SUMO\joined\state"/>
    </output>

    <processing>
        <ignore-junction-blocker value="1"/>
        <ignore-route-errors value="true"/>
        <time-to-teleport value="-1"/>
    </processing>

    <report>
        <log value="C:\Users\aless_xtbdjh4\PycharmProjects\UrbanDigitalTwin\SUMO\joined\sumo_log.txt"/>
        <no-step-log value="true"/>
    </report>

    <emissions>
        <phemlight-path value="C:\Users\aless_xtbdjh4\PycharmProjects\UrbanDigitalTwin\SUMO\joined\./PHEMlight/"/>
    </emissions>

</configuration>
-->

<tripinfos xmlns:xsi="http://www.w3.org/2001/XMLSchema-instance" xsi:noNamespaceSchemaLocation="http://sumo.dlr.de/xsd/tripinfo_file.xsd">
    <tripinfo id="0" depart="50.00" departLane="a78[0]_0" departPos="5.10" departSpeed="0.00" departDelay="0.78" arrival="219.00" arrivalLane="b16[0]_0" arrivalPos="187.21" arrivalSpeed="14.44" duration="169.00" routeLength="2113.08" waitingTime="4.00" waitingCount="1" stopTime="0.00" timeLoss="23.21" rerouteNo="0" devices="vehroute_0 tripinfo_0 fcd_0" vType="DEFAULT_VEHTYPE" speedFactor="1.06" vaporized=""/>
    <tripinfo id="8" depart="143.00" departLane="a78[0]_0" departPos="5.10" departSpeed="0.00" departDelay="2.73" arrival="336.00" arrivalLane="b17[0]_0" arrivalPos="220.36" arrivalSpeed="12.56" duration="193.00" routeLength="1788.80" waitingTime="29.00" waitingCount="2" stopTime="0.00" timeLoss="53.35" rerouteNo="0" devices="vehroute_8 tripinfo_8 fcd_8" vType="DEFAULT_VEHTYPE" speedFactor="0.94" vaporized=""/>
    <tripinfo id="7" depart="140.00" departLane="a78[0]_0" departPos="5.10" departSpeed="0.00" departDelay="0.19" arrival="339.00" arrivalLane="b17[0]_0" arrivalPos="220.36" arrivalSpeed="11.45" duration="199.00" routeLength="1795.23" waitingTime="26.00" waitingCount="1" stopTime="0.00" timeLoss="50.85" rerouteNo="0" devices="vehroute_7 tripinfo_7 fcd_7" vType="DEFAULT_VEHTYPE" speedFactor="0.89" vaporized=""/>
    <tripinfo id="9" depart="146.00" departLane="a78[0]_0" departPos="5.10" departSpeed="0.00" departDelay="4.93" arrival="342.00" arrivalLane="b17[0]_0" arrivalPos="220.36" arrivalSpeed="10.63" duration="196.00" routeLength="1795.23" waitingTime="20.00" waitingCount="1" stopTime="0.00" timeLoss="43.27" rerouteNo="0" devices="vehroute_9 tripinfo_9 fcd_9" vType="DEFAULT_VEHTYPE" speedFactor="0.86" vaporized=""/>
    <tripinfo id="1" depart="56.00" departLane="a203[1]_0" departPos="5.10" departSpeed="0.00" departDelay="0.90" arrival="375.00" arrivalLane="b21_1" arrivalPos="90.26" arrivalSpeed="12.42" duration="319.00" routeLength="2789.13" waitingTime="57.00" waitingCount="5" stopTime="0.00" timeLoss="103.27" rerouteNo="0" devices="vehroute_1 tripinfo_1 fcd_1" vType="DEFAULT_VEHTYPE" speedFactor="0.94" vaporized=""/>
    <tripinfo id="2" depart="62.00" departLane="a203[1]_0" departPos="5.10" departSpeed="0.00" departDelay="0.22" arrival="377.00" arrivalLane="b21_1" arrivalPos="90.26" arrivalSpeed="13.98" duration="315.00" routeLength="2789.13" waitingTime="54.00" waitingCount="6" stopTime="0.00" timeLoss="113.43" rerouteNo="0" devices="vehroute_2 tripinfo_2 fcd_2" vType="DEFAULT_VEHTYPE" speedFactor="1.01" vaporized=""/>
    <tripinfo id="4" depart="100.00" departLane="a55_0" departPos="5.10" departSpeed="0.00" departDelay="0.58" arrival="407.00" arrivalLane="a54_0" arrivalPos="301.28" arrivalSpeed="14.31" duration="307.00" routeLength="2017.79" waitingTime="125.00" waitingCount="4" stopTime="0.00" timeLoss="163.78" rerouteNo="0" devices="vehroute_4 tripinfo_4 fcd_4" vType="DEFAULT_VEHTYPE" speedFactor="1.03" vaporized=""/>
    <tripinfo id="3" depart="80.00" departLane="a55_0" departPos="5.10" departSpeed="0.00" departDelay="0.13" arrival="408.00" arrivalLane="a54_1" arrivalPos="301.28" arrivalSpeed="14.35" duration="328.00" routeLength="2017.79" waitingTime="144.00" waitingCount="4" stopTime="0.00" timeLoss="190.44" rerouteNo="0" devices="vehroute_3 tripinfo_3 fcd_3" vType="DEFAULT_VEHTYPE" speedFactor="1.08" vaporized=""/>
    <tripinfo id="6" depart="133.00" departLane="a55_0" departPos="5.10" departSpeed="0.00" departDelay="0.44" arrival="412.00" arrivalLane="a54_0" arrivalPos="301.28" arrivalSpeed="14.25" duration="279.00" routeLength="2017.79" waitingTime="90.00" waitingCount="4" stopTime="0.00" timeLoss="137.52" rerouteNo="0" devices="vehroute_6 tripinfo_6 fcd_6" vType="DEFAULT_VEHTYPE" speedFactor="1.05" vaporized=""/>
    <tripinfo id="5" depart="117.00" departLane="a78[0]_0" departPos="5.10" departSpeed="0.00" departDelay="0.66" arrival="418.00" arrivalLane="b16[0]_0" arrivalPos="187.21" arrivalSpeed="10.29" duration="301.00" routeLength="2113.08" waitingTime="76.00" waitingCount="4" stopTime="0.00" timeLoss="115.68" rerouteNo="0" devices="vehroute_5 tripinfo_5 fcd_5" vType="DEFAULT_VEHTYPE" speedFactor="0.83" vaporized=""/>
    <tripinfo id="10" depart="150.00" departLane="a78[0]_0" departPos="5.10" departSpeed="0.00" departDelay="2.16" arrival="420.00" arrivalLane="b16[0]_0" arrivalPos="187.21" arrivalSpeed="13.92" duration="270.00" routeLength="2110.25" waitingTime="64.00" waitingCount="4" stopTime="0.00" timeLoss="128.10" rerouteNo="0" devices="vehroute_10 tripinfo_10 fcd_10" vType="DEFAULT_VEHTYPE" speedFactor="1.09" vaporized=""/>
    <tripinfo id="21" depart="256.00" departLane="a78[0]_0" departPos="5.10" departSpeed="0.00" departDelay="0.61" arrival="420.00" arrivalLane="b17[0]_0" arrivalPos="220.36" arrivalSpeed="13.08" duration="164.00" routeLength="1788.80" waitingTime="16.00" waitingCount="1" stopTime="0.00" timeLoss="34.01" rerouteNo="0" devices="vehroute_21 tripinfo_21 fcd_21" vType="DEFAULT_VEHTYPE" speedFactor="1.01" vaporized=""/>
    <tripinfo id="12" depart="169.00" departLane="a78[0]_0" departPos="5.10" departSpeed="0.00" departDelay="0.17" arrival="421.00" arrivalLane="b16[0]_0" arrivalPos="187.21" arrivalSpeed="13.90" duration="252.00" routeLength="2113.08" waitingTime="45.00" waitingCount="3" stopTime="0.00" timeLoss="104.53" rerouteNo="0" devices="vehroute_12 tripinfo_12 fcd_12" vType="DEFAULT_VEHTYPE" speedFactor="1.05" vaporized=""/>
    <tripinfo id="14" depart="174.00" departLane="a78[0]_0" departPos="5.10" departSpeed="0.00" departDelay="0.99" arrival="423.00" arrivalLane="b17[0]_0" arrivalPos="220.36" arrivalSpeed="13.62" duration="249.00" routeLength="1795.23" waitingTime="98.00" waitingCount="1" stopTime="0.00" timeLoss="116.20" rerouteNo="0" devices="vehroute_14 tripinfo_14 fcd_14" vType="DEFAULT_VEHTYPE" speedFactor="0.99" vaporized=""/>
    <tripinfo id="11" depart="157.00" departLane="a203[1]_0" departPos="5.10" departSpeed="0.00" departDelay="0.76" arrival="470.00" arrivalLane="b21_1" arrivalPos="90.26" arrivalSpeed="13.46" duration="313.00" routeLength="2789.13" waitingTime="67.00" waitingCount="5" stopTime="0.00" timeLoss="115.12" rerouteNo="0" devices="vehroute_11 tripinfo_11 fcd_11" vType="DEFAULT_VEHTYPE" speedFactor="1.03" vaporized=""/>
    <tripinfo id="16" depart="193.00" departLane="a203[1]_0" departPos="5.10" departSpeed="0.00" departDelay="0.45" arrival="478.00" arrivalLane="b21_1" arrivalPos="90.26" arrivalSpeed="11.80" duration="285.00" routeLength="2789.13" waitingTime="17.00" waitingCount="2" stopTime="0.00" timeLoss="54.02" rerouteNo="0" devices="vehroute_16 tripinfo_16 fcd_16" vType="DEFAULT_VEHTYPE" speedFactor="0.88" vaporized=""/>
    <tripinfo id="13" depart="172.00" departLane="a55_0" departPos="5.10" departSpeed="0.00" departDelay="0.22" arrival="507.00" arrivalLane="a54_0" arrivalPos="301.28" arrivalSpeed="15.48" duration="335.00" routeLength="2017.79" waitingTime="168.00" waitingCount="4" stopTime="0.00" timeLoss="203.26" rerouteNo="0" devices="vehroute_13 tripinfo_13 fcd_13" vType="DEFAULT_VEHTYPE" speedFactor="1.12" vaporized=""/>
    <tripinfo id="19" depart="212.00" departLane="a55_0" departPos="5.10" departSpeed="0.00" departDelay="2.50" arrival="509.00" arrivalLane="a54_0" arrivalPos="301.28" arrivalSpeed="15.77" duration="297.00" routeLength="2017.79" waitingTime="122.00" waitingCount="4" stopTime="0.00" timeLoss="169.91" rerouteNo="0" devices="vehroute_19 tripinfo_19 fcd_19" vType="DEFAULT_VEHTYPE" speedFactor="1.16" vaporized=""/>
    <tripinfo id="15" depart="183.00" departLane="a78[0]_0" departPos="5.10" departSpeed="0.00" departDelay="0.23" arrival="510.00" arrivalLane="b16[0]_0" arrivalPos="187.21" arrivalSpeed="12.82" duration="327.00" routeLength="2113.08" waitingTime="122.00" waitingCount="5" stopTime="0.00" timeLoss="160.31" rerouteNo="0" devices="vehroute_15 tripinfo_15 fcd_15" vType="DEFAULT_VEHTYPE" speedFactor="0.93" vaporized=""/>
    <tripinfo id="17" depart="202.00" departLane="a78[0]_0" departPos="5.10" departSpeed="0.00" departDelay="0.86" arrival="513.00" arrivalLane="b16[0]_0" arrivalPos="187.21" arrivalSpeed="12.10" duration="311.00" routeLength="2113.08" waitingTime="92.00" waitingCount="6" stopTime="0.00" timeLoss="146.66" rerouteNo="0" devices="vehroute_17 tripinfo_17 fcd_17" vType="DEFAULT_VEHTYPE" speedFactor="0.94" vaporized=""/>
    <tripinfo id="18" depart="209.00" departLane="a55_0" departPos="5.10" departSpeed="0.00" departDelay="0.69" arrival="516.00" arrivalLane="a54_0" arrivalPos="301.28" arrivalSpeed="11.74" duration="307.00" routeLength="2017.79" waitingTime="108.00" waitingCount="4" stopTime="0.00" timeLoss="148.95" rerouteNo="0" devices="vehroute_18 tripinfo_18 fcd_18" vType="DEFAULT_VEHTYPE" speedFactor="0.94" vaporized=""/>
    <tripinfo id="23" depart="272.00" departLane="a78[0]_0" departPos="5.10" departSpeed="0.00" departDelay="0.44" arrival="516.00" arrivalLane="b16[0]_0" arrivalPos="187.21" arrivalSpeed="11.46" duration="244.00" routeLength="2113.08" waitingTime="27.00" waitingCount="5" stopTime="0.00" timeLoss="70.14" rerouteNo="0" devices="vehroute_23 tripinfo_23 fcd_23" vType="DEFAULT_VEHTYPE" speedFactor="0.89" vaporized=""/>
    <tripinfo id="24" depart="275.00" departLane="a78[0]_0" departPos="5.10" departSpeed="0.00" departDelay="0.68" arrival="520.00" arrivalLane="b16[0]_0" arrivalPos="187.21" arrivalSpeed="10.55" duration="245.00" routeLength="2113.08" waitingTime="15.00" waitingCount="2" stopTime="0.00" timeLoss="58.34" rerouteNo="0" devices="vehroute_24 tripinfo_24 fcd_24" vType="DEFAULT_VEHTYPE" speedFactor="0.83" vaporized=""/>
    <tripinfo id="28" depart="304.00" departLane="a78[0]_0" departPos="5.10" departSpeed="0.00" departDelay="4.18" arrival="536.00" arrivalLane="b17[0]_0" arrivalPos="220.36" arrivalSpeed="15.58" duration="232.00" routeLength="1792.40" waitingTime="91.00" waitingCount="1" stopTime="0.00" timeLoss="115.84" rerouteNo="0" devices="vehroute_28 tripinfo_28 fcd_28" vType="DEFAULT_VEHTYPE" speedFactor="1.13" vaporized=""/>
    <tripinfo id="20" depart="229.00" departLane="a203[1]_0" departPos="5.10" departSpeed="0.00" departDelay="0.36" arrival="594.00" arrivalLane="b21_1" arrivalPos="90.26" arrivalSpeed="13.14" duration="365.00" routeLength="2789.13" waitingTime="120.00" waitingCount="3" stopTime="0.00" timeLoss="166.22" rerouteNo="0" devices="vehroute_20 tripinfo_20 fcd_20" vType="DEFAULT_VEHTYPE" speedFactor="1.02" vaporized=""/>
    <tripinfo id="29" depart="319.00" departLane="a55_0" departPos="5.10" departSpeed="0.00" departDelay="0.73" arrival="612.00" arrivalLane="a54_0" arrivalPos="301.28" arrivalSpeed="12.17" duration="293.00" routeLength="2017.79" waitingTime="99.00" waitingCount="4" stopTime="0.00" timeLoss="133.97" rerouteNo="0" devices="vehroute_29 tripinfo_29 fcd_29" vType="DEFAULT_VEHTYPE" speedFactor="0.93" vaporized=""/>
    <tripinfo id="22" depart="272.00" departLane="a55_0" departPos="5.10" departSpeed="0.00" departDelay="0.71" arrival="613.00" arrivalLane="a54_1" arrivalPos="301.28" arrivalSpeed="12.64" duration="341.00" routeLength="2017.79" waitingTime="141.00" waitingCount="4" stopTime="0.00" timeLoss="188.75" rerouteNo="0" devices="vehroute_22 tripinfo_22 fcd_22" vType="DEFAULT_VEHTYPE" speedFactor="0.97" vaporized=""/>
    <tripinfo id="31" depart="331.00" departLane="a55_0" departPos="5.10" departSpeed="0.00" departDelay="0.52" arrival="613.00" arrivalLane="a54_0" arrivalPos="301.28" arrivalSpeed="14.42" duration="282.00" routeLength="2017.79" waitingTime="88.00" waitingCount="4" stopTime="0.00" timeLoss="153.97" rerouteNo="0" devices="vehroute_31 tripinfo_31 fcd_31" vType="DEFAULT_VEHTYPE" speedFactor="1.15" vaporized=""/>
    <tripinfo id="33" depart="339.00" departLane="a55_0" departPos="5.10" departSpeed="0.00" departDelay="0.03" arrival="615.00" arrivalLane="a54_1" arrivalPos="301.28" arrivalSpeed="15.98" duration="276.00" routeLength="2017.79" waitingTime="72.00" waitingCount="5" stopTime="0.00" timeLoss="148.98" rerouteNo="0" devices="vehroute_33 tripinfo_33 fcd_33" vType="DEFAULT_VEHTYPE" speedFactor="1.17" vaporized=""/>
    <tripinfo id="30" depart="331.00" departLane="a203[1]_0" departPos="5.10" departSpeed="0.00" departDelay="0.87" arrival="643.00" arrivalLane="b21_1" arrivalPos="90.26" arrivalSpeed="15.08" duration="312.00" routeLength="2789.13" waitingTime="80.00" waitingCount="3" stopTime="0.00" timeLoss="140.38" rerouteNo="0" devices="vehroute_30 tripinfo_30 fcd_30" vType="DEFAULT_VEHTYPE" speedFactor="1.18" vaporized=""/>
    <tripinfo id="32" depart="338.00" departLane="a203[1]_0" departPos="5.10" departSpeed="0.00" departDelay="0.06" arrival="646.00" arrivalLane="b21_1" arrivalPos="90.26" arrivalSpeed="13.72" duration="308.00" routeLength="2789.13" waitingTime="67.00" waitingCount="3" stopTime="0.00" timeLoss="105.42" rerouteNo="0" devices="vehroute_32 tripinfo_32 fcd_32" vType="DEFAULT_VEHTYPE" speedFactor="1.01" vaporized=""/>
    <tripinfo id="38" depart="460.00" departLane="a78[0]_0" departPos="5.10" departSpeed="0.00" departDelay="0.32" arrival="661.00" arrivalLane="b17[0]_0" arrivalPos="220.36" arrivalSpeed="14.38" duration="201.00" routeLength="1795.23" waitingTime="64.00" waitingCount="1" stopTime="0.00" timeLoss="81.86" rerouteNo="0" devices="vehroute_38 tripinfo_38 fcd_38" vType="DEFAULT_VEHTYPE" speedFactor="1.10" vaporized=""/>
    <tripinfo id="39" depart="463.00" departLane="a78[0]_0" departPos="5.10" departSpeed="0.00" departDelay="0.40" arrival="675.00" arrivalLane="b17[0]_0" arrivalPos="220.36" arrivalSpeed="11.64" duration="212.00" routeLength="1788.80" waitingTime="49.00" waitingCount="1" stopTime="0.00" timeLoss="66.73" rerouteNo="0" devices="vehroute_39 tripinfo_39 fcd_39" vType="DEFAULT_VEHTYPE" speedFactor="0.90" vaporized=""/>
    <tripinfo id="25" depart="292.00" departLane="a78[0]_0" departPos="5.10" departSpeed="0.00" departDelay="0.86" arrival="705.00" arrivalLane="b16[0]_0" arrivalPos="187.21" arrivalSpeed="11.60" duration="413.00" routeLength="2113.08" waitingTime="197.00" waitingCount="5" stopTime="0.00" timeLoss="235.66" rerouteNo="0" devices="vehroute_25 tripinfo_25 fcd_25" vType="DEFAULT_VEHTYPE" speedFactor="0.87" vaporized=""/>
    <tripinfo id="34" depart="360.00" departLane="a78[0]_0" departPos="5.10" departSpeed="0.00" departDelay="0.05" arrival="707.00" arrivalLane="b16[0]_0" arrivalPos="187.21" arrivalSpeed="12.60" duration="347.00" routeLength="2113.08" waitingTime="125.00" waitingCount="5" stopTime="0.00" timeLoss="190.81" rerouteNo="0" devices="vehroute_34 tripinfo_34 fcd_34" vType="DEFAULT_VEHTYPE" speedFactor="0.99" vaporized=""/>
    <tripinfo id="27" depart="301.00" departLane="a78[0]_0" departPos="5.10" departSpeed="0.00" departDelay="2.59" arrival="709.00" arrivalLane="b16[0]_0" arrivalPos="187.21" arrivalSpeed="12.62" duration="408.00" routeLength="2113.08" waitingTime="180.00" waitingCount="6" stopTime="0.00" timeLoss="244.30" rerouteNo="0" devices="vehroute_27 tripinfo_27 fcd_27" vType="DEFAULT_VEHTYPE" speedFactor="0.95" vaporized=""/>
    <tripinfo id="35" depart="385.00" departLane="a55_0" departPos="5.10" departSpeed="0.00" departDelay="0.68" arrival="710.00" arrivalLane="a54_0" arrivalPos="301.28" arrivalSpeed="13.97" duration="325.00" routeLength="2017.79" waitingTime="144.00" waitingCount="4" stopTime="0.00" timeLoss="180.11" rerouteNo="0" devices="vehroute_35 tripinfo_35 fcd_35" vType="DEFAULT_VEHTYPE" speedFactor="1.02" vaporized=""/>
    <tripinfo id="26" depart="298.00" departLane="a78[0]_0" departPos="5.10" departSpeed="0.00" departDelay="0.11" arrival="712.00" arrivalLane="b16[0]_0" arrivalPos="187.21" arrivalSpeed="11.44" duration="414.00" routeLength="2113.08" waitingTime="186.00" waitingCount="7" stopTime="0.00" timeLoss="246.08" rerouteNo="0" devices="vehroute_26 tripinfo_26 fcd_26" vType="DEFAULT_VEHTYPE" speedFactor="0.92" vaporized=""/>
    <tripinfo id="36" depart="409.00" departLane="a55_0" departPos="5.10" departSpeed="0.00" departDelay="0.53" arrival="713.00" arrivalLane="a54_0" arrivalPos="301.28" arrivalSpeed="12.56" duration="304.00" routeLength="2017.79" waitingTime="113.00" waitingCount="4" stopTime="0.00" timeLoss="151.99" rerouteNo="0" devices="vehroute_36 tripinfo_36 fcd_36" vType="DEFAULT_VEHTYPE" speedFactor="0.97" vaporized=""/>
    <tripinfo id="40" depart="478.00" departLane="a78[0]_0" departPos="5.10" departSpeed="0.00" departDelay="0.12" arrival="714.00" arrivalLane="b16[0]_0" arrivalPos="187.21" arrivalSpeed="13.39" duration="236.00" routeLength="2113.08" waitingTime="38.00" waitingCount="3" stopTime="0.00" timeLoss="85.52" rerouteNo="0" devices="vehroute_40 tripinfo_40 fcd_40" vType="DEFAULT_VEHTYPE" speedFactor="1.03" vaporized=""/>
    <tripinfo id="43" depart="499.00" departLane="a78[0]_0" departPos="5.10" departSpeed="0.00" departDelay="0.93" arrival="795.00" arrivalLane="b16[0]_0" arrivalPos="187.21" arrivalSpeed="13.89" duration="296.00" routeLength="2113.08" waitingTime="96.00" waitingCount="5" stopTime="0.00" timeLoss="146.73" rerouteNo="0" devices="vehroute_43 tripinfo_43 fcd_43" vType="DEFAULT_VEHTYPE" speedFactor="1.04" vaporized=""/>
    <tripinfo id="41" depart="481.00" departLane="a78[0]_0" departPos="5.10" departSpeed="0.00" departDelay="1.53" arrival="800.00" arrivalLane="b16[0]_0" arrivalPos="187.21" arrivalSpeed="13.00" duration="319.00" routeLength="2113.08" waitingTime="104.00" waitingCount="6" stopTime="0.00" timeLoss="157.28" rerouteNo="0" devices="vehroute_41 tripinfo_41 fcd_41" vType="DEFAULT_VEHTYPE" speedFactor="0.96" vaporized=""/>
    <tripinfo id="44" depart="528.00" departLane="a55_0" departPos="5.10" departSpeed="0.00" departDelay="0.22" arrival="810.00" arrivalLane="a54_0" arrivalPos="301.28" arrivalSpeed="14.48" duration="282.00" routeLength="2017.79" waitingTime="101.00" waitingCount="4" stopTime="0.00" timeLoss="140.37" rerouteNo="0" devices="vehroute_44 tripinfo_44 fcd_44" vType="DEFAULT_VEHTYPE" speedFactor="1.04" vaporized=""/>
    <tripinfo id="46" depart="572.00" departLane="a55_0" departPos="5.10" departSpeed="0.00" departDelay="0.87" arrival="823.00" arrivalLane="a54_0" arrivalPos="301.28" arrivalSpeed="13.36" duration="251.00" routeLength="2017.79" waitingTime="78.00" waitingCount="1" stopTime="0.00" timeLoss="102.97" rerouteNo="0" devices="vehroute_46 tripinfo_46 fcd_46" vType="DEFAULT_VEHTYPE" speedFactor="1.00" vaporized=""/>
    <tripinfo id="37" depart="433.00" departLane="a203[1]_0" departPos="5.10" departSpeed="0.00" departDelay="0.41" arrival="832.00" arrivalLane="b21_1" arrivalPos="90.26" arrivalSpeed="16.29" duration="399.00" routeLength="2789.13" waitingTime="163.00" waitingCount="5" stopTime="0.00" timeLoss="226.99" rerouteNo="0" devices="vehroute_37 tripinfo_37 fcd_37" vType="DEFAULT_VEHTYPE" speedFactor="1.18" vaporized=""/>
    <tripinfo id="42" depart="482.00" departLane="a203[1]_0" departPos="5.10" departSpeed="0.00" departDelay="0.13" arrival="837.00" arrivalLane="b21_1" arrivalPos="90.26" arrivalSpeed="14.80" duration="355.00" routeLength="2789.13" waitingTime="120.00" waitingCount="4" stopTime="0.00" timeLoss="169.79" rerouteNo="0" devices="vehroute_42 tripinfo_42 fcd_42" vType="DEFAULT_VEHTYPE" speedFactor="1.09" vaporized=""/>
    <tripinfo id="51" depart="659.00" departLane="a78[0]_0" departPos="5.10" departSpeed="0.00" departDelay="0.68" arrival="891.00" arrivalLane="b16[0]_0" arrivalPos="187.21" arrivalSpeed="15.64" duration="232.00" routeLength="2110.25" waitingTime="44.00" waitingCount="4" stopTime="0.00" timeLoss="98.83" rerouteNo="0" devices="vehroute_51 tripinfo_51 fcd_51" vType="DEFAULT_VEHTYPE" speedFactor="1.17" vaporized=""/>
    <tripinfo id="50" depart="632.00" departLane="a78[0]_0" departPos="5.10" departSpeed="0.00" departDelay="0.81" arrival="899.00" arrivalLane="b16[0]_0" arrivalPos="187.21" arrivalSpeed="11.80" duration="267.00" routeLength="2113.08" waitingTime="40.00" waitingCount="5" stopTime="0.00" timeLoss="86.30" rerouteNo="0" devices="vehroute_50 tripinfo_50 fcd_50" vType="DEFAULT_VEHTYPE" speedFactor="0.85" vaporized=""/>
    <tripinfo id="45" depart="559.00" departLane="a78[0]_0" departPos="5.10" departSpeed="0.00" departDelay="0.85" arrival="901.00" arrivalLane="b16[0]_0" arrivalPos="187.21" arrivalSpeed="15.06" duration="342.00" routeLength="2113.08" waitingTime="158.00" waitingCount="5" stopTime="0.00" timeLoss="199.80" rerouteNo="0" devices="vehroute_45 tripinfo_45 fcd_45" vType="DEFAULT_VEHTYPE" speedFactor="1.09" vaporized=""/>
    <tripinfo id="52" depart="664.00" departLane="a78[0]_0" departPos="5.10" departSpeed="0.00" departDelay="0.40" arrival="903.00" arrivalLane="b16[0]_0" arrivalPos="187.21" arrivalSpeed="13.23" duration="239.00" routeLength="2113.08" waitingTime="41.00" waitingCount="3" stopTime="0.00" timeLoss="86.55" rerouteNo="0" devices="vehroute_52 tripinfo_52 fcd_52" vType="DEFAULT_VEHTYPE" speedFactor="1.02" vaporized=""/>
    <tripinfo id="47" depart="594.00" departLane="a55_0" departPos="5.10" departSpeed="0.00" departDelay="0.60" arrival="914.00" arrivalLane="a54_0" arrivalPos="301.28" arrivalSpeed="12.03" duration="320.00" routeLength="2017.79" waitingTime="122.00" waitingCount="3" stopTime="0.00" timeLoss="156.08" rerouteNo="0" devices="vehroute_47 tripinfo_47 fcd_47" vType="DEFAULT_VEHTYPE" speedFactor="0.90" vaporized=""/>
    <tripinfo id="54" depart="703.00" departLane="a78[0]_0" departPos="5.10" departSpeed="0.00" departDelay="3.23" arrival="914.00" arrivalLane="b17[0]_0" arrivalPos="220.36" arrivalSpeed="12.99" duration="211.00" routeLength="1795.23" waitingTime="61.00" waitingCount="1" stopTime="0.00" timeLoss="79.68" rerouteNo="0" devices="vehroute_54 tripinfo_54 fcd_54" vType="DEFAULT_VEHTYPE" speedFactor="1.00" vaporized=""/>
    <tripinfo id="53" depart="700.00" departLane="a78[0]_0" departPos="5.10" departSpeed="0.00" departDelay="0.61" arrival="938.00" arrivalLane="b16[0]_0" arrivalPos="187.21" arrivalSpeed="14.15" duration="238.00" routeLength="2113.08" waitingTime="69.00" waitingCount="2" stopTime="0.00" timeLoss="96.28" rerouteNo="0" devices="vehroute_53 tripinfo_53 fcd_53" vType="DEFAULT_VEHTYPE" speedFactor="1.10" vaporized=""/>
    <tripinfo id="49" depart="611.00" departLane="a203[1]_0" departPos="5.10" departSpeed="0.00" departDelay="0.15" arrival="1006.00" arrivalLane="b21_1" arrivalPos="90.26" arrivalSpeed="11.71" duration="395.00" routeLength="2789.13" waitingTime="106.00" waitingCount="4" stopTime="0.00" timeLoss="155.89" rerouteNo="0" devices="vehroute_49 tripinfo_49 fcd_49" vType="DEFAULT_VEHTYPE" speedFactor="0.85" vaporized=""/>
    <tripinfo id="48" depart="599.00" departLane="a203[1]_0" departPos="5.10" departSpeed="0.00" departDelay="0.62" arrival="1009.00" arrivalLane="b21_1" arrivalPos="90.26" arrivalSpeed="11.98" duration="410.00" routeLength="2789.13" waitingTime="125.00" waitingCount="5" stopTime="0.00" timeLoss="177.83" rerouteNo="0" devices="vehroute_48 tripinfo_48 fcd_48" vType="DEFAULT_VEHTYPE" speedFactor="0.88" vaporized=""/>
    <tripinfo id="56" depart="745.00" departLane="a55_0" departPos="5.10" departSpeed="0.00" departDelay="0.94" arrival="1016.00" arrivalLane="a54_0" arrivalPos="301.28" arrivalSpeed="12.02" duration="271.00" routeLength="2017.79" waitingTime="76.00" waitingCount="2" stopTime="0.00" timeLoss="105.83" rerouteNo="0" devices="vehroute_56 tripinfo_56 fcd_56" vType="DEFAULT_VEHTYPE" speedFactor="0.90" vaporized=""/>
    <tripinfo id="58" depart="766.00" departLane="a78[0]_0" departPos="5.10" departSpeed="0.00" departDelay="0.18" arrival="1030.00" arrivalLane="b16[0]_0" arrivalPos="187.21" arrivalSpeed="13.82" duration="264.00" routeLength="2113.08" waitingTime="81.00" waitingCount="3" stopTime="0.00" timeLoss="113.28" rerouteNo="0" devices="vehroute_58 tripinfo_58 fcd_58" vType="DEFAULT_VEHTYPE" speedFactor="1.02" vaporized=""/>
    <tripinfo id="59" depart="773.00" departLane="a55_0" departPos="5.10" departSpeed="0.00" departDelay="0.48" arrival="1030.00" arrivalLane="a54_0" arrivalPos="301.28" arrivalSpeed="12.52" duration="257.00" routeLength="2017.79" waitingTime="79.00" waitingCount="1" stopTime="0.00" timeLoss="104.34" rerouteNo="0" devices="vehroute_59 tripinfo_59 fcd_59" vType="DEFAULT_VEHTYPE" speedFactor="0.97" vaporized=""/>
    <tripinfo id="60" depart="781.00" departLane="a78[0]_0" departPos="5.10" departSpeed="0.00" departDelay="0.49" arrival="1032.00" arrivalLane="b16[0]_0" arrivalPos="187.21" arrivalSpeed="14.57" duration="251.00" routeLength="2113.08" waitingTime="66.00" waitingCount="3" stopTime="0.00" timeLoss="108.10" rerouteNo="0" devices="vehroute_60 tripinfo_60 fcd_60" vType="DEFAULT_VEHTYPE" speedFactor="1.08" vaporized=""/>
    <tripinfo id="67" depart="861.00" departLane="a78[0]_0" departPos="5.10" departSpeed="0.00" departDelay="2.05" arrival="1043.00" arrivalLane="b17[0]_0" arrivalPos="220.36" arrivalSpeed="12.24" duration="182.00" routeLength="1795.23" waitingTime="18.00" waitingCount="1" stopTime="0.00" timeLoss="38.12" rerouteNo="0" devices="vehroute_67 tripinfo_67 fcd_67" vType="DEFAULT_VEHTYPE" speedFactor="0.91" vaporized=""/>
    <tripinfo id="57" depart="747.00" departLane="a203[1]_0" departPos="5.10" departSpeed="0.00" departDelay="0.98" arrival="1093.00" arrivalLane="b21_1" arrivalPos="90.26" arrivalSpeed="15.49" duration="346.00" routeLength="2789.13" waitingTime="111.00" waitingCount="6" stopTime="0.00" timeLoss="168.29" rerouteNo="0" devices="vehroute_57 tripinfo_57 fcd_57" vType="DEFAULT_VEHTYPE" speedFactor="1.14" vaporized=""/>
    <tripinfo id="55" depart="739.00" departLane="a203[1]_0" departPos="5.10" departSpeed="0.00" departDelay="0.84" arrival="1096.00" arrivalLane="b21_1" arrivalPos="90.26" arrivalSpeed="12.96" duration="357.00" routeLength="2789.13" waitingTime="96.00" waitingCount="6" stopTime="0.00" timeLoss="152.45" rerouteNo="0" devices="vehroute_55 tripinfo_55 fcd_55" vType="DEFAULT_VEHTYPE" speedFactor="1.00" vaporized=""/>
    <tripinfo id="62" depart="826.00" departLane="a55_0" departPos="5.10" departSpeed="0.00" departDelay="0.18" arrival="1114.00" arrivalLane="a54_0" arrivalPos="301.28" arrivalSpeed="12.91" duration="288.00" routeLength="2017.79" waitingTime="108.00" waitingCount="2" stopTime="0.00" timeLoss="143.28" rerouteNo="0" devices="vehroute_62 tripinfo_62 fcd_62" vType="DEFAULT_VEHTYPE" speedFactor="1.02" vaporized=""/>
    <tripinfo id="65" depart="856.00" departLane="a55_0" departPos="5.10" departSpeed="0.00" departDelay="0.98" arrival="1120.00" arrivalLane="a54_0" arrivalPos="301.28" arrivalSpeed="11.13" duration="264.00" routeLength="2017.79" waitingTime="69.00" waitingCount="1" stopTime="0.00" timeLoss="96.09" rerouteNo="0" devices="vehroute_65 tripinfo_65 fcd_65" vType="DEFAULT_VEHTYPE" speedFactor="0.88" vaporized=""/>
    <tripinfo id="69" depart="868.00" departLane="a55_0" departPos="5.10" departSpeed="0.00" departDelay="0.09" arrival="1120.00" arrivalLane="a54_1" arrivalPos="301.28" arrivalSpeed="13.46" duration="252.00" routeLength="2017.79" waitingTime="68.00" waitingCount="1" stopTime="0.00" timeLoss="106.52" rerouteNo="0" devices="vehroute_69 tripinfo_69 fcd_69" vType="DEFAULT_VEHTYPE" speedFactor="1.02" vaporized=""/>
    <tripinfo id="64" depart="853.00" departLane="a78[0]_0" departPos="5.10" departSpeed="0.00" departDelay="0.93" arrival="1123.00" arrivalLane="b16[0]_0" arrivalPos="187.21" arrivalSpeed="12.97" duration="270.00" routeLength="2113.08" waitingTime="63.00" waitingCount="4" stopTime="0.00" timeLoss="104.60" rerouteNo="0" devices="vehroute_64 tripinfo_64 fcd_64" vType="DEFAULT_VEHTYPE" speedFactor="0.94" vaporized=""/>